<?xml version="1.0"?>
<VTKFile type="UnstructuredGrid"  version="0.1"  >
<UnstructuredGrid>
<Piece  NumberOfPoints="37" NumberOfCells="56">
<Points>
<DataArray  type="Float64"  NumberOfComponents="3"  format="ascii">0 0 0  0.0127 0 0  0.0127 -0.0127 0  0 -0.0127 0  0.0127 -0.0254 0  0 -0.0254 0  0.0253979451954365 -0.0127 0  0.0253979451954365 -0.0254 0  0.0253979451954365 0 0  0.006349999999999994 0 0  0.0127 -0.006349999999999987 0  0.006350000000000014 -0.0127 0  0 -0.006349999999999987 0  0.0127 -0.01904999999999999 0  0.006349999999999994 -0.0254 0  0 -0.01904999999999999 0  0.01904897259771824 -0.0127 0  0.0253979451954365 -0.01904999999999999 0  0.01904897259771827 -0.0254 0  0.01904897259771827 0 0  0.0253979451954365 -0.006349999999999987 0  0.00635 -0.006349999999999996 0  0.009525000000000006 -0.009524999999999994 0  0.009524999999999997 -0.003174999999999994 0  0.003174999999999997 -0.003174999999999993 0  0.003175000000000002 -0.009524999999999995 0  0.006350000000000001 -0.01904999999999999 0  0.009524999999999997 -0.022225 0  0.003175000000000004 -0.01587499999999999 0  0.003174999999999997 -0.022225 0  0.009525000000000006 -0.01587499999999999 0  0.01904897259771825 -0.01905102731916715 0  0.02222345889657737 -0.01587499999999999 0  0.01587448629885912 -0.01587499999999999 0  0.01904897259771825 -0.006348972680832854 0  0.02222345889657737 -0.009524999999999994 0  0.01587448629885912 -0.009524999999999992 0  </DataArray>
</Points>
<Cells>
<DataArray  type="UInt32"  Name="connectivity"  format="ascii">2 10 22  1 9 23  3 11 25  10 21 22  11 21 22  3 12 25  12 21 24  10 21 23  11 21 25  12 21 25  9 21 24  9 21 23  0 9 24  2 11 22  0 12 24  1 10 23  3 11 28  5 15 29  26 27 29  4 13 27  15 26 28  15 26 29  13 26 30  13 26 27  4 14 27  14 27 29  2 11 30  5 14 29  2 13 30  3 15 28  11 26 28  11 26 30  7 18 31  4 18 31  7 17 31  4 13 31  2 13 33  6 17 32  6 16 32  2 16 33  16 32 33  31 32 33  13 31 33  17 31 32  8 19 34  1 19 34  8 20 34  1 10 34  2 10 36  6 20 35  6 16 35  2 16 36  16 35 36  34 35 36  10 34 36  20 34 35  </DataArray>
<DataArray  type="UInt32"  Name="offsets"  format="ascii">3 6 9 12 15 18 21 24 27 30 33 36 39 42 45 48 51 54 57 60 63 66 69 72 75 78 81 84 87 90 93 96 99 102 105 108 111 114 117 120 123 126 129 132 135 138 141 144 147 150 153 156 159 162 165 168 </DataArray>
<DataArray  type="UInt8"  Name="types"  format="ascii">5 5 5 5 5 5 5 5 5 5 5 5 5 5 5 5 5 5 5 5 5 5 5 5 5 5 5 5 5 5 5 5 5 5 5 5 5 5 5 5 5 5 5 5 5 5 5 5 5 5 5 5 5 5 5 5 </DataArray>
</Cells>
<CellData  Scalars="f">
<DataArray  type="Float64"  Name="f"  format="ascii">1 1 1 1 1 1 1 1 1 1 1 1 1 1 1 1 2 2 2 2 2 2 2 2 2 2 2 2 2 2 2 2 3 3 3 3 3 3 3 3 3 3 3 3 4 4 4 4 4 4 4 4 4 4 4 4 </DataArray>
</CellData>
</Piece>
</UnstructuredGrid>
</VTKFile>